 &FCI NORB=   4,NELEC= 4,MS2=0,
  ORBSYM=1,1,1,1,
  ISYM=1,
 &END
 0.4972848339745077    1    1    1    1
 0.4359320880669055    1    1    2    2
 -0.08156519316759374    1    1    3    1
 0.445994089704207    1    1    3    3
 -0.08424758944235755    1    1    4    2
 0.5229522351411363    1    1    4    4
 0.1573820542416302    2    1    2    1
 0.09800095413149044    2    1    3    2
 -0.04308397755872703    2    1    4    1
 0.1506334717723191    2    1    4    3
 0.4359320880669055    2    2    1    1
 0.4536261664575227    2    2    2    2
 0.009805153205493987    2    2    3    1
 0.4477642031214354    2    2    3    3
 -0.00405649570140635    2    2    4    2
 0.46394529646845    2    2    4    4
 -0.08156519316759375    3    1    1    1
 0.009805153205493982    3    1    2    2
 0.1078321210840758    3    1    3    1
 -0.006862628154546691    3    1    3    3
 0.09851298291873607    3    1    4    2
 -0.08590730305133762    3    1    4    4
 0.09800095413149046    3    2    2    1
 0.1372827107221419    3    2    3    2
 0.0529605596688603    3    2    4    1
 0.09936645501760857    3    2    4    3
 0.445994089704207    3    3    1    1
 0.4477642031214355    3    3    2    2
 -0.006862628154546704    3    3    3    1
 0.4674057541788822    3    3    3    3
 -0.002814511040129905    3    3    4    2
 0.4802184232268476    3    3    4    4
 -0.04308397755872703    4    1    2    1
 0.05296055966886026    4    1    3    2
 0.09706949699932355    4    1    4    1
 -0.04096940945032596    4    1    4    3
 -0.08424758944235747    4    2    1    1
 -0.004056495701406268    4    2    2    2
 0.09851298291873603    4    2    3    1
 -0.002814511040129843    4    2    3    3
 0.104645327031172    4    2    4    2
 -0.0935380165581927    4    2    4    4
 0.1506334717723191    4    3    2    1
 0.09936645501760863    4    3    3    2
 -0.04096940945032594    4    3    4    1
 0.1624644779353708    4    3    4    3
 0.5229522351411362    4    4    1    1
 0.4639452964684499    4    4    2    2
 -0.08590730305133754    4    4    3    1
 0.4802184232268475    4    4    3    3
 -0.0935380165581928    4    4    4    2
 0.5810459172323116    4    4    4    4
 -1.835108696316805    1    1  0  0
 -1.550652517950251    2    2  0  0
 0.1599560968425185    3    1  0  0
 -1.245801753748653    3    3  0  0
 0.129467473891878    4    2  0  0
 -0.906325002404032    4    4  0  0
 2.29310124732  0  0  0  0
