 &FCI NORB=   6,NELEC= 6,MS2=0,
  ORBSYM=1,1,1,1,1,1,
  ISYM=1,
 &END
 0.2911750314912455    1    1    1    1
 -1.297573160030652e-15    1    1    2    1
 0.2247886382475911    1    1    2    2
 0.06295308897671709    1    1    3    1
 1.741662369880714e-15    1    1    3    2
 0.2612354139241455    1    1    3    3
 -1.210836986231811e-15    1    1    4    1
 0.05105236586376558    1    1    4    2
 0.2634622228084701    1    1    4    4
 0.01040825230999405    1    1    5    1
 -0.05271294519120069    1    1    5    3
 0.2295298705497431    1    1    5    5
 -0.01155434583655938    1    1    6    2
 0.0651930662236346    1    1    6    4
 2.123301534595612e-15    1    1    6    5
 0.3008716149419041    1    1    6    6
 -1.302777330458582e-15    2    1    1    1
 0.1136155358007438    2    1    2    1
 1.158795281952507e-15    2    1    2    2
 1.328798182598234e-15    2    1    3    1
 -0.09623817665300083    2    1    3    2
 0.03931031416343417    2    1    4    1
 0.05758504884453287    2    1    4    3
 0.02797582042146608    2    1    5    2
 0.09701102862808531    2    1    5    4
 -1.450228825916611e-15    2    1    5    5
 0.0007765436331617134    2    1    6    1
 0.04051115460587519    2    1    6    3
 -0.1183128722788734    2    1    6    5
 1.812786032395763e-15    2    1    6    6
 0.224788638247591    2    2    1    1
 1.1518563880486e-15    2    2    2    1
 0.2787059861479101    2    2    2    2
 -0.05328501203191113    2    2    3    1
 -1.693090112553364e-15    2    2    3    2
 0.2318797180481972    2    2    3    3
 -0.004506038740609078    2    2    4    2
 0.2326927583801171    2    2    4    4
 0.02832509895467482    2    2    5    1
 0.003030232946967096    2    2    5    3
 1.082467449009528e-15    2    2    5    4
 0.2846823747361097    2    2    5    5
 -0.02938183099697481    2    2    6    2
 -0.05387964015323356    2    2    6    4
 -2.012279232133096e-15    2    2    6    5
 0.2333540965928048    2    2    6    6
 0.06295308897671709    3    1    1    1
 1.328798182598234e-15    3    1    2    1
 -0.05328501203191113    3    1    2    2
 0.1130359098964436    3    1    3    1
 0.03093589843092437    3    1    3    3
 0.04760013128638436    3    1    4    2
 0.03211560437444805    3    1    4    4
 -0.02355667785969952    3    1    5    1
 -0.0479495764173736    3    1    5    3
 1.370431546021678e-15    3    1    5    4
 -0.0543552314087852    3    1    5    5
 0.02335452170259916    3    1    6    2
 0.1157703350329449    3    1    6    4
 0.06432995551597552    3    1    6    6
 1.724315135120946e-15    3    2    1    1
 -0.09623817665300083    3    2    2    1
 -1.686151218649456e-15    3    2    2    2
 0.1137708168379011    3    2    3    2
 0.0180562370175442    3    2    4    1
 -0.04889729481226839    3    2    4    3
 0.009248283485681859    3    2    5    2
 -0.11463892520761    3    2    5    4
 0.02049740332746822    3    2    6    1
 0.01691136113616477    3    2    6    3
 1.356553758213863e-15    3    2    6    4
 0.1008703468159773    3    2    6    5
 0.2612354139241455    3    3    1    1
 0.2318797180481972    3    3    2    2
 0.0309358984309244    3    3    3    1
 0.2627613169462686    3    3    3    3
 0.0006149346322457672    3    3    4    2
 0.2639340719012622    3    3    4    4
 -0.01815623483612034    3    3    5    1
 -0.002551657630192883    3    3    5    3
 0.2374036306209835    3    3    5    5
 0.0168081755074551    3    3    6    2
 0.03183752004077041    3    3    6    4
 0.270811184879592    3    3    6    6
 -1.220377965349684e-15    4    1    1    1
 0.03931031416343417    4    1    2    1
 0.01805623701754419    4    1    3    2
 0.09588663207513645    4    1    4    1
 0.01997830870438366    4    1    4    3
 0.06263528558635438    4    1    5    2
 1.118896642005041e-15    4    1    5    3
 -0.01861913970697687    4    1    5    4
 0.03436049616622581    4    1    6    1
 0.09688966656889567    4    1    6    3
 -0.04063115172984403    4    1    6    5
 0.05105236586376556    4    2    1    1
 -0.004506038740609088    4    2    2    2
 0.04760013128638436    4    2    3    1
 0.0006149346322457741    4    2    3    3
 0.08257524786666365    4    2    4    2
 0.001161174099491753    4    2    4    4
 0.04977409141848113    4    2    5    1
 -0.08329727248980397    4    2    5    3
 -0.00524160426260532    4    2    5    5
 -0.05029711202362648    4    2    6    2
 1.132774429812855e-15    4    2    6    3
 0.04996867207465494    4    2    6    4
 0.05293721132710007    4    2    6    6
 0.05758504884453289    4    3    2    1
 -0.04889729481226838    4    3    3    2
 0.01997830870438367    4    3    4    1
 0.1035454656929621    4    3    4    3
 -0.06080375439960112    4    3    5    2
 0.05019680322250384    4    3    5    4
 0.07544024865787012    4    3    6    1
 0.019590249873439    4    3    6    3
 -0.06057964866342888    4    3    6    5
 0.2634622228084701    4    4    1    1
 0.2326927583801171    4    4    2    2
 0.03211560437444803    4    4    3    1
 0.2639340719012622    4    4    3    3
 0.001161174099491749    4    4    4    2
 0.2681312767371725    4    4    4    4
 -0.0185894138859318    4    4    5    1
 -0.001346274743642101    4    4    5    3
 0.2390822392588558    4    4    5    5
 0.01859709188078202    4    4    6    2
 0.03336193682339903    4    4    6    4
 0.2737103965650903    4    4    6    6
 0.01040825230999403    5    1    1    1
 0.02832509895467482    5    1    2    2
 -0.02355667785969953    5    1    3    1
 -0.01815623483612035    5    1    3    3
 0.04977409141848112    5    1    4    2
 -0.01858941388593181    5    1    4    4
 0.06198773807529781    5    1    5    1
 -0.05038017098205983    5    1    5    3
 0.02856237321265601    5    1    5    5
 1.017415318660397e-15    5    1    6    1
 -0.06250017463276232    5    1    6    2
 -0.02335969876660157    5    1    6    4
 0.01127001430230897    5    1    6    6
 0.02797582042146606    5    2    2    1
 0.009248283485681862    5    2    3    2
 0.06263528558635438    5    2    4    1
 -0.06080375439960115    5    2    4    3
 0.1169888661329756    5    2    5    2
 -0.01082173451271827    5    2    5    4
 -0.05362219826171394    5    2    6    1
 -1.131039706336878e-15    5    2    6    2
 0.06492391373771762    5    2    6    3
 -0.02897537351540856    5    2    6    5
 -0.0527129451912007    5    3    1    1
 0.003030232946967103    5    3    2    2
 -0.04794957641737359    5    3    3    1
 -0.002551657630192869    5    3    3    3
 1.122366088956994e-15    5    3    4    1
 -0.08329727248980395    5    3    4    2
 -0.001346274743642083    5    3    4    4
 -0.05038017098205984    5    3    5    1
 0.08529391246736008    5    3    5    3
 0.003866434666144215    5    3    5    5
 0.051862923547879    5    3    6    2
 -0.05031776282018537    5    3    6    4
 -0.0551641924167757    5    3    6    6
 0.09701102862808532    5    4    2    1
 1.089406342913435e-15    5    4    2    2
 1.373900992973631e-15    5    4    3    1
 -0.11463892520761    5    4    3    2
 -0.01861913970697689    5    4    4    1
 0.05019680322250385    5    4    4    3
 -0.01082173451271827    5    4    5    2
 0.117570029042114    5    4    5    4
 -1.047772979489991e-15    5    4    5    5
 -0.02028338799282881    5    4    6    1
 -0.01879649207620826    5    4    6    3
 -0.1022477846476714    5    4    6    5
 1.448494102440634e-15    5    4    6    6
 0.2295298705497431    5    5    1    1
 -1.436351038108796e-15    5    5    2    1
 0.2846823747361097    5    5    2    2
 -0.05435523140878519    5    5    3    1
 0.2374036306209835    5    5    3    3
 -0.005241604262605323    5    5    4    2
 0.2390822392588558    5    5    4    4
 0.028562373212656    5    5    5    1
 0.003866434666144204    5    5    5    3
 -1.089406342913435e-15    5    5    5    4
 0.2934415442196058    5    5    5    5
 -0.02967159044770435    5    5    6    2
 -0.05642033543829045    5    5    6    4
 0.2397518101847345    5    5    6    6
 0.0007765436331617164    6    1    2    1
 0.02049740332746821    6    1    3    2
 0.03436049616622582    6    1    4    1
 0.07544024865787013    6    1    4    3
 1.034762553420165e-15    6    1    5    1
 -0.05362219826171393    6    1    5    2
 -0.02028338799282881    6    1    5    4
 0.08994042765152363    6    1    6    1
 0.03367076013767152    6    1    6    3
 -0.0008918242962747654    6    1    6    5
 -0.01155434583655937    6    2    1    1
 -0.0293818309969748    6    2    2    2
 0.02335452170259917    6    2    3    1
 0.0168081755074551    6    2    3    3
 -0.05029711202362648    6    2    4    2
 0.01859709188078205    6    2    4    4
 -0.06250017463276229    6    2    5    1
 -1.120631365481017e-15    6    2    5    2
 0.05186292354787899    6    2    5    3
 -0.02967159044770435    6    2    5    5
 0.06375424217774193    6    2    6    2
 0.02335105169260645    6    2    6    4
 -0.0127442650678343    6    2    6    6
 0.04051115460587518    6    3    2    1
 0.01691136113616478    6    3    3    2
 0.09688966656889567    6    3    4    1
 1.111957748101133e-15    6    3    4    2
 0.01959024987343901    6    3    4    3
 0.06492391373771762    6    3    5    2
 -0.01879649207620825    6    3    5    4
 0.03367076013767152    6    3    6    1
 0.09934192927855062    6    3    6    3
 -0.04255864753159067    6    3    6    5
 0.0651930662236346    6    4    1    1
 -0.05387964015323356    6    4    2    2
 0.1157703350329449    6    4    3    1
 1.35308431126191e-15    6    4    3    2
 0.03183752004077042    6    4    3    3
 0.04996867207465495    6    4    4    2
 0.03336193682339905    6    4    4    4
 -0.02335969876660157    6    4    5    1
 -0.05031776282018538    6    4    5    3
 -0.05642033543829048    6    4    5    5
 0.02335105169260646    6    4    6    2
 0.1205480164738238    6    4    6    4
 1.039099362110107e-15    6    4    6    5
 0.06742437501113833    6    4    6    6
 2.138914045879403e-15    6    5    1    1
 -0.1183128722788734    6    5    2    1
 -1.991462550421375e-15    6    5    2    2
 0.1008703468159773    6    5    3    2
 -0.04063115172984402    6    5    4    1
 -0.06057964866342889    6    5    4    3
 -0.02897537351540855    6    5    5    2
 -0.1022477846476714    6    5    5    4
 -0.000891824296274768    6    5    6    1
 -0.04255864753159067    6    5    6    3
 1.030425744730223e-15    6    5    6    4
 0.1252834345110918    6    5    6    5
 -1.101549407245273e-15    6    5    6    6
 0.3008716149419041    6    6    1    1
 1.797173521111972e-15    6    6    2    1
 0.2333540965928048    6    6    2    2
 0.06432995551597553    6    6    3    1
 0.270811184879592    6    6    3    3
 0.05293721132710006    6    6    4    2
 0.2737103965650903    6    6    4    4
 0.01127001430230899    6    6    5    1
 -0.05516419241677573    6    6    5    3
 1.429412144204889e-15    6    6    5    4
 0.2397518101847346    6    6    5    5
 -0.01274426506783431    6    6    6    2
 0.06742437501113832    6    6    6    4
 -1.127570259384925e-15    6    6    6    5
 0.3143173176203713    6    6    6    6
 -1.359984434032288    1    1  0  0
 -1.245577216191163    2    2  0  0
 -0.08355706161084468    3    1  0  0
 -1.241315870865037    3    3  0  0
 1.105618923703331e-15    4    1  0  0
 -0.1084152235904871    4    2  0  0
 -1.198646993153128    4    4  0  0
 -0.05071951849904813    5    1  0  0
 0.08760892941846744    5    3  0  0
 -1.120097503109928    5    5  0  0
 0.03656222166845738    6    2  0  0
 -0.08264819004979419    6    4  0  0
 -1.175970331208369    6    6  0  0
 2.301920867502001  0  0  0  0
