 &FCI NORB=   6,NELEC= 6,MS2=0,
  ORBSYM=1,1,1,1,1,1,
  ISYM=1,
 &END
 0.2911750314912779    1    1    1    1
 0.2247886382475296    1    1    2    2
 0.06295308897676155    1    1    3    1
 1.332267629550188e-15    1    1    3    2
 0.2612354139241824    1    1    3    3
 0.05105236586373358    1    1    4    2
 0.2634622228085469    1    1    4    4
 0.01040825230999147    1    1    5    1
 -0.05271294519117656    1    1    5    3
 0.2295298705496784    1    1    5    5
 -0.0115543458365783    1    1    6    2
 0.0651930662236913    1    1    6    4
 1.606353938754523e-15    1    1    6    5
 0.3008716149418951    1    1    6    6
 0.113615535800673    2    1    2    1
 -0.09623817665305444    2    1    3    2
 0.03931031416341829    2    1    4    1
 0.05758504884443896    2    1    4    3
 0.02797582042140243    2    1    5    2
 0.09701102862810107    2    1    5    4
 0.0007765436331867784    2    1    6    1
 0.04051115460583995    2    1    6    3
 1.051242426441945e-15    2    1    6    4
 -0.1183128722788306    2    1    6    5
 1.405126015541214e-15    2    1    6    6
 0.2247886382475296    2    2    1    1
 0.2787059861479407    2    2    2    2
 -0.05328501203196739    2    2    3    1
 0.2318797180482049    2    2    3    3
 -0.004506038740628965    2    2    4    2
 0.2326927583800883    2    2    4    4
 0.0283250989546306    2    2    5    1
 0.003030232946976366    2    2    5    3
 0.2846823747361376    2    2    5    5
 -0.02938183099693098    2    2    6    2
 -0.05387964015329322    2    2    6    4
 0.233354096592775    2    2    6    6
 0.06295308897676158    3    1    1    1
 -0.05328501203196739    3    1    2    2
 0.1130359098964685    3    1    3    1
 0.03093589843093316    3    1    3    3
 0.04760013128631971    3    1    4    2
 0.03211560437452911    3    1    4    4
 -0.02355667785966256    3    1    5    1
 -0.04794957641730459    3    1    5    3
 -0.05435523140884099    3    1    5    5
 0.02335452170254338    3    1    6    2
 0.115770335032981    3    1    6    4
 0.06432995551594831    3    1    6    6
 1.35828848168984e-15    3    2    1    1
 -0.09623817665305445    3    2    2    1
 0.1137708168379555    3    2    3    2
 0.01805623701746553    3    2    4    1
 -0.04889729481220988    3    2    4    3
 0.009248283485693926    3    2    5    2
 -0.1146389252076328    3    2    5    4
 0.02049740332741621    3    2    6    1
 0.01691136113609418    3    2    6    3
 0.1008703468160693    3    2    6    5
 0.2612354139241824    3    3    1    1
 0.2318797180482049    3    3    2    2
 0.03093589843093317    3    3    3    1
 0.2627613169462529    3    3    3    3
 0.0006149346322790739    3    3    4    2
 0.2639340719012638    3    3    4    4
 -0.01815623483605829    3    3    5    1
 -0.002551657630225412    3    3    5    3
 0.2374036306209893    3    3    5    5
 0.01680817550738761    3    3    6    2
 0.03183752004078029    3    3    6    4
 0.2708111848796108    3    3    6    6
 0.03931031416341829    4    1    2    1
 0.01805623701746552    4    1    3    2
 0.09588663207519049    4    1    4    1
 0.0199783087044399    4    1    4    3
 0.06263528558637779    4    1    5    2
 -0.0186191397069135    4    1    5    4
 0.03436049616627106    4    1    6    1
 0.09688966656893369    4    1    6    3
 -0.04063115172982236    4    1    6    5
 0.05105236586373357    4    2    1    1
 -0.004506038740628968    4    2    2    2
 0.04760013128631971    4    2    3    1
 0.0006149346322790773    4    2    3    3
 0.08257524786662344    4    2    4    2
 0.001161174099553863    4    2    4    4
 0.04977409141850876    4    2    5    1
 -0.0832972724897813    4    2    5    3
 -0.005241604262628503    4    2    5    5
 -0.05029711202368312    4    2    6    2
 0.04996867207460672    4    2    6    4
 0.05293721132703324    4    2    6    6
 0.05758504884443895    4    3    2    1
 -0.04889729481220986    4    3    3    2
 0.01997830870443987    4    3    4    1
 0.1035454656928857    4    3    4    3
 -0.06080375439960908    4    3    5    2
 0.05019680322242483    4    3    5    4
 0.07544024865790774    4    3    6    1
 0.01959024987343844    4    3    6    3
 -0.06057964866335029    4    3    6    5
 0.2634622228085468    4    4    1    1
 0.2326927583800883    4    4    2    2
 0.03211560437452908    4    4    3    1
 0.2639340719012638    4    4    3    3
 0.001161174099553845    4    4    4    2
 0.2681312767371957    4    4    4    4
 -0.01858941388588472    4    4    5    1
 -0.001346274743703892    4    4    5    3
 0.2390822392588259    4    4    5    5
 0.01859709188072987    4    4    6    2
 0.03336193682348439    4    4    6    4
 0.2737103965651494    4    4    6    6
 0.01040825230999145    5    1    1    1
 0.02832509895463061    5    1    2    2
 -0.02355667785966255    5    1    3    1
 -0.01815623483605829    5    1    3    3
 0.04977409141850877    5    1    4    2
 -0.01858941388588473    5    1    4    4
 0.06198773807525712    5    1    5    1
 -0.0503801709821067    5    1    5    3
 0.02856237321260686    5    1    5    5
 -0.06250017463273744    5    1    6    2
 -0.02335969876655281    5    1    6    4
 0.01127001430231829    5    1    6    6
 0.02797582042140242    5    2    2    1
 0.009248283485693917    5    2    3    2
 0.06263528558637779    5    2    4    1
 -0.0608037543996091    5    2    4    3
 0.1169888661330123    5    2    5    2
 -0.01082173451274289    5    2    5    4
 -0.05362219826168695    5    2    6    1
 0.06492391373777817    5    2    6    3
 -0.02897537351533502    5    2    6    5
 -0.05271294519117654    5    3    1    1
 0.003030232946976356    5    3    2    2
 -0.04794957641730457    5    3    3    1
 -0.002551657630225402    5    3    3    3
 -0.08329727248978133    5    3    4    2
 -0.001346274743703888    5    3    4    4
 -0.0503801709821067    5    3    5    1
 0.08529391246735431    5    3    5    3
 0.003866434666156975    5    3    5    5
 0.05186292354795515    5    3    6    2
 -0.05031776282013255    5    3    6    4
 -0.05516419241671751    5    3    6    6
 0.09701102862810108    5    4    2    1
 -0.1146389252076328    5    4    3    2
 -0.01861913970691351    5    4    4    1
 0.05019680322242484    5    4    4    3
 -0.0108217345127429    5    4    5    2
 0.1175700290421051    5    4    5    4
 -0.02028338799277717    5    4    6    1
 -0.01879649207615366    5    4    6    3
 -0.1022477846477246    5    4    6    5
 0.2295298705496783    5    5    1    1
 0.2846823747361375    5    5    2    2
 -0.05435523140884099    5    5    3    1
 0.2374036306209892    5    5    3    3
 -0.005241604262628492    5    5    4    2
 0.2390822392588259    5    5    4    4
 0.02856237321260687    5    5    5    1
 0.003866434666156986    5    5    5    3
 0.293441544219631    5    5    5    5
 -0.02967159044765455    5    5    6    2
 -0.05642033543834974    5    5    6    4
 0.2397518101847017    5    5    6    6
 0.0007765436331867701    6    1    2    1
 0.02049740332741621    6    1    3    2
 0.03436049616627102    6    1    4    1
 0.07544024865790772    6    1    4    3
 -0.05362219826168695    6    1    5    2
 -0.02028338799277717    6    1    5    4
 0.08994042765152394    6    1    6    1
 0.03367076013766538    6    1    6    3
 -0.0008918242962991357    6    1    6    5
 -0.01155434583657827    6    2    1    1
 -0.02938183099693099    6    2    2    2
 0.02335452170254337    6    2    3    1
 0.01680817550738761    6    2    3    3
 -0.05029711202368312    6    2    4    2
 0.01859709188072987    6    2    4    4
 -0.06250017463273741    6    2    5    1
 0.05186292354795514    6    2    5    3
 -0.02967159044765452    6    2    5    5
 0.0637542421777335    6    2    6    2
 0.02335105169253759    6    2    6    4
 -0.01274426506786678    6    2    6    6
 0.04051115460583994    6    3    2    1
 0.01691136113609417    6    3    3    2
 0.09688966656893365    6    3    4    1
 0.01959024987343845    6    3    4    3
 0.06492391373777816    6    3    5    2
 -0.01879649207615366    6    3    5    4
 0.03367076013766538    6    3    6    1
 0.0993419292785733    6    3    6    3
 -0.04255864753154903    6    3    6    5
 0.06519306622369131    6    4    1    1
 1.046038256014015e-15    6    4    2    1
 -0.05387964015329321    6    4    2    2
 0.115770335032981    6    4    3    1
 0.03183752004078029    6    4    3    3
 0.0499686720746067    6    4    4    2
 0.03336193682348434    6    4    4    4
 -0.02335969876655282    6    4    5    1
 -0.05031776282013255    6    4    5    3
 -0.05642033543834975    6    4    5    5
 0.0233510516925376    6    4    6    2
 0.1205480164738725    6    4    6    4
 0.06742437501112132    6    4    6    6
 1.6080886622305e-15    6    5    1    1
 -0.1183128722788306    6    5    2    1
 0.1008703468160693    6    5    3    2
 -0.04063115172982235    6    5    4    1
 -0.06057964866335031    6    5    4    3
 -0.02897537351533503    6    5    5    2
 -0.1022477846477246    6    5    5    4
 -0.0008918242962991322    6    5    6    1
 -0.04255864753154905    6    5    6    3
 0.1252834345110796    6    5    6    5
 0.3008716149418951    6    6    1    1
 1.432881591156843e-15    6    6    2    1
 0.233354096592775    6    6    2    2
 0.06432995551594829    6    6    3    1
 0.2708111848796108    6    6    3    3
 0.05293721132703321    6    6    4    2
 0.2737103965651494    6    6    4    4
 0.01127001430231829    6    6    5    1
 -0.05516419241671751    6    6    5    3
 0.2397518101847018    6    6    5    5
 -0.01274426506786678    6    6    6    2
 0.06742437501112133    6    6    6    4
 0.3143173176203182    6    6    6    6
 -1.359984434032296    1    1  0  0
 -1.245577216191095    2    2  0  0
 -0.08355706161082123    3    1  0  0
 -1.241315870865078    3    3  0  0
 -0.1084152235904828    4    2  0  0
 -1.198646993153238    4    4  0  0
 -0.05071951849910776    5    1  0  0
 0.08760892941841363    5    3  0  0
 -1.120097503109877    5    5  0  0
 0.03656222166849221    6    2  0  0
 -0.08264819004979854    6    4  0  0
 -1.175970331208328    6    6  0  0
 2.301920867502001  0  0  0  0
